<UPF version="2.0.1">
<PP_INFO>
Generated by new atomic code, or converted to UPF format
Author:
Generation date:
Pseudopotential type: NC
Element: B
Functional:  SLA  PZ   NOGX NOGC
Suggested minimum cutoff for wavefunctions:   0. Ry
Suggested minimum cutoff for charge density:   0. Ry
The Pseudo was generated with a Non-Relativistic Calculation
L component and cutoff radius for Local Potential:  0   0.0000
Valence configuration:
nl pn  l   occ       Rcut    Rcut US       E pseu
2S  0  0  2.00      0.000      0.000     0.000000
2P  0  1  1.00      0.000      0.000     0.000000
Generation configuration: not available.
</PP_INFO>
<!--
END OF HUMAN READABLE SECTION
-->
<PP_HEADER generated="Generated by new atomic code, or converted to UPF format" author="" date="" comment="" element="B " pseudo_type="NC" relativistic="no" is_ultrasoft="false" is_paw="false" is_coulomb="false" has_so="false" has_wfc="false" has_gipaw="false" paw_as_gipaw="false" core_correction="false" functional=" SLA  PZ   NOGX NOGC" z_valence="3.000000000000e0" total_psenergy="0.000000000000e0" wfc_cutoff="0.000000000000e0" rho_cutoff="0.000000000000e0" l_max="0" l_max_rho="0" l_local="0" mesh_size="157" number_of_wfc="2" number_of_proj="1"/>
<PP_MESH dx="6.249999999999e-2" mesh="157" xmin="-3.999999999999e0" rmax="6.283813205710e1" zmesh="5.000000000000e0">
<PP_R>
3.663127777750000e-3 3.899379221720000e-3 4.150867574740000e-3 4.418575533009999e-3
4.703549171200000e-3 5.006902029990000e-3 5.329819467270001e-3 5.673563289940001e-3
6.039476684460000e-3 6.428989465379999e-3 6.843623662330001e-3 7.284999467470000e-3
7.754841566340000e-3 8.254985877160001e-3 8.787386724679999e-3 9.354124476790000e-3
9.957413673570002e-3 1.059961168070000e-2 1.128322790080000e-2 1.201093357910000e-2
1.278557224130000e-2 1.361017080500000e-2 1.448795140690000e-2 1.542234399370000e-2
1.641699972480000e-2 1.747580523910000e-2 1.860289784210000e-2 1.980268167280000e-2
2.107984491240000e-2 2.243937810410000e-2 2.388659365330000e-2 2.542714658640000e-2
2.706705664730000e-2 2.881273182030000e-2 3.067099336900000e-2 3.264910249080000e-2
3.475478869010000e-2 3.699627998150000e-2 3.938233504080000e-2 4.192227743020000e-2
4.462603202970000e-2 4.750416381910000e-2 5.056791916090000e-2 5.382926974580000e-2
5.730095937200000e-2 6.099655374220000e-2 6.493049347170000e-2 6.911815051540000e-2
7.357588823430000e-2 7.832112533540001e-2 8.337240393569999e-2 8.874946201620000e-2
9.447331054820001e-2 1.005663155940000e-1 1.070522857040000e-1 1.139565649460000e-1
1.213061319430000e-1 1.291297052860000e-1 1.374578557580000e-1 1.463231257890000e-1
1.557601566140000e-1 1.658058236360000e-1 1.764993805170000e-1 1.878826125630000e-1
2.000000000000000e-1 2.128988917840000e-1 2.266296906130000e-1 2.412460498840000e-1
2.568050833380000e-1 2.733675882350000e-1 2.909982829240000e-1 3.097660597270000e-1
3.297442541400000e-1 3.510109313920000e-1 3.736491914860000e-1 3.977474939160000e-1
4.234000033230000e-1 4.507069574430000e-1 4.797750587930000e-1 5.107178916130000e-1
5.436563656920001e-1 5.787191888340000e-1 6.160433697840000e-1 6.557747535880000e-1
6.980685914920000e-1 7.430901475880000e-1 7.910153445840001e-1 8.420314512290000e-1
8.963378140680000e-1 9.541466363940000e-1 1.015683807440000e0 1.081189785030000e0
1.150920535200000e0 1.225148532380000e0 1.304163824070000e0 1.388275164240000e0
1.477811219790000e0 1.573121854790000e0 1.674579497630000e0 1.782580596240000e0
1.897547167270000e0 2.019928445100000e0 2.150202637220000e0 2.288878792870000e0
2.436498792140000e0 2.593639463390000e0 2.760914837210000e0 2.938978545760000e0
3.128526376840000e0 3.330298992720000e0 3.545084824290000e0 3.773723151850000e0
4.017107384640000e0 4.276188551820000e0 4.551979018710000e0 4.845556442520000e0
5.158067983440000e0 5.490734787090000e0 5.844856756250000e0 6.221817630190000e0
6.623090391740000e0 7.050243022920000e0 7.504944631920000e0 7.988971975160000e0
8.504216400010000e0 9.052691235250000e0 9.636539658220000e0 1.025804306930000e1
1.091963000660000e1 1.162388563550000e1 1.237356185010000e1 1.317158802650000e1
1.402108246930000e1 1.492536459660000e1 1.588796791050000e1 1.691265380410000e1
1.800342626010000e1 1.916454749540000e1 2.040055461650000e1 2.171627734820000e1
2.311685690540000e1 2.460776608340000e1 2.619483064220000e1 2.788425207090000e1
2.968263182050000e1 3.159699709900000e1 3.363482833040000e1 3.580408838430000e1
3.811325369170000e1 4.057134736620000e1 4.318797446210001e1 4.597335950680001e1
4.893838645280001e1 5.209464120740001e1 5.545445690460000e1 5.903096209730000e1
6.283813205710000e1
</PP_R>
<PP_RAB>
2.289454861090000e-4 2.437112013570000e-4 2.594292234210000e-4 2.761609708130000e-4
2.939718232000000e-4 3.129313768750000e-4 3.331137167039999e-4 3.545977056210000e-4
3.774672927790000e-4 4.018118415860000e-4 4.277264788960000e-4 4.553124667170000e-4
4.846775978970000e-4 5.159366173219999e-4 5.492116702930000e-4 5.846327797990000e-4
6.223383545980000e-4 6.624757300420001e-4 7.052017437969999e-4 7.506833486910001e-4
7.990982650840000e-4 8.506356753130001e-4 9.054969629280000e-4 9.638964996040000e-4
1.026062482800000e-3 1.092237827440000e-3 1.162681115130000e-3 1.237667604550000e-3
1.317490307020000e-3 1.402461131500000e-3 1.492912103330000e-3 1.589196661650000e-3
1.691691040460000e-3 1.800795738770000e-3 1.916937085560000e-3 2.040568905670000e-3
2.172174293130000e-3 2.312267498840000e-3 2.461395940050000e-3 2.620142339390000e-3
2.789127001860000e-3 2.969010238690000e-3 3.160494947560000e-3 3.364329359110000e-3
3.581309960750000e-3 3.812284608890000e-3 4.058155841980000e-3 4.319884407209999e-3
4.598493014639999e-3 4.895070333460000e-3 5.210775245980001e-3 5.546841376010001e-3
5.904581909259999e-3 6.285394724639999e-3 6.690767856490000e-3 7.122285309140000e-3
7.581633246410000e-3 8.070606580349999e-3 8.591115984889999e-3 9.145195361830000e-3
9.735009788390002e-3 1.036286397730000e-2 1.103121128230000e-2 1.174266328520000e-2
1.250000000000000e-2 1.330618073650000e-2 1.416435566330000e-2 1.507787811780000e-2
1.605031770860000e-2 1.708547426470000e-2 1.818739268270000e-2 1.936037873290000e-2
2.060901588380000e-2 2.193818321200000e-2 2.335307446790000e-2 2.485921836980000e-2
2.646250020770000e-2 2.816918484020000e-2 2.998594117460000e-2 3.191986822580000e-2
3.397852285570000e-2 3.616994930210000e-2 3.850271061150000e-2 4.098592209920000e-2
4.362928696830000e-2 4.644313422430000e-2 4.943845903650001e-2 5.262696570180000e-2
5.602111337920000e-2 5.963416477459999e-2 6.348023796480000e-2 6.757436156429999e-2
7.193253345010000e-2 7.657178327350000e-2 8.151023900409999e-2 8.676719776499999e-2
9.236320123660001e-2 9.832011592430000e-2 1.046612186020000e-1 1.114112872650000e-1
1.185966979540000e-1 1.262455278190000e-1 1.343876648260000e-1 1.430549245540000e-1
1.522811745090000e-1 1.621024664620000e-1 1.725571773260000e-1 1.836861591100000e-1
1.955328985520000e-1 2.081436870450000e-1 2.215678015180000e-1 2.358576969910000e-1
2.510692115400000e-1 2.672617844890000e-1 2.844986886690000e-1 3.028472776580000e-1
3.223792489650000e-1 3.431709241930000e-1 3.653035472650000e-1 3.888636018870000e-1
4.139431494840000e-1 4.406401889320001e-1 4.690590394950000e-1 4.993107484480000e-1
5.315135250010000e-1 5.657932022030000e-1 6.022837286390001e-1 6.411276918320000e-1
6.824768754140001e-1 7.264928522180000e-1 7.733476156300000e-1 8.232242516550000e-1
8.763176543340000e-1 9.328352872900000e-1 9.929979944030000e-1 1.057040862760000e0
1.125214141260000e0 1.197784218460000e0 1.275034663530000e0 1.357267334260000e0
1.444803556590000e0 1.537985380210000e0 1.637176915140000e0 1.742765754430000e0
1.855164488780000e0 1.974812318690000e0 2.102176770650000e0 2.237755524020000e0
2.382078355730000e0 2.535709210390000e0 2.699248403880000e0 2.873334969180000e0
3.058649153300000e0 3.255915075460000e0 3.465903556540000e0 3.689435131080000e0
3.927383253570000e0
</PP_RAB>
</PP_MESH>
<PP_LOCAL columns="4">
-2.365238982990000e1 -2.365228084450000e1 -2.365215734860000e1 -2.365201741060000e1
-2.365185884150000e1 -2.365167916100000e1 -2.365147555860000e1 -2.365124484980000e1
-2.365098342650000e1 -2.365068719990000e1 -2.365035153750000e1 -2.364997119040000e1
-2.364954021120000e1 -2.364905186110000e1 -2.364849850530000e1 -2.364787149310000e1
-2.364716102360000e1 -2.364635599280000e1 -2.364544382020000e1 -2.364441025350000e1
-2.364323914630000e1 -2.364191220720000e1 -2.364040871560000e1 -2.363870520000000e1
-2.363677507400000e1 -2.363458822430000e1 -2.363211054520000e1 -2.362930341140000e1
-2.362612308260000e1 -2.362252003040000e1 -2.361843817780000e1 -2.361381403990000e1
-2.360857575450000e1 -2.360264198850000e1 -2.359592070350000e1 -2.358830776620000e1
-2.357968538290000e1 -2.356992033900000e1 -2.355886201920000e1 -2.354634018630000e1
-2.353216249000000e1 -2.351611167930000e1 -2.349794248580000e1 -2.347737814980000e1
-2.345410655350000e1 -2.342777593180000e1 -2.339799012750000e1 -2.336430336230000e1
-2.332621450080000e1 -2.328316078930000e1 -2.323451106490000e1 -2.317955844540000e1
-2.311751253240000e1 -2.304749119050000e1 -2.296851200620000e1 -2.287948358000000e1
-2.277919687520000e1 -2.266631693030000e1 -2.253937535050000e1 -2.239676412280000e1
-2.223673146450000e1 -2.205738059840000e1 -2.185667257760000e1 -2.163243452930000e1
-2.138237496410000e1 -2.110410808410000e1 -2.079518929460000e1 -2.045316435230000e1
-2.007563470720000e1 -1.966034154370000e1 -1.920527070230000e1 -1.870877992940000e1
-1.816974861570000e1 -1.758774817550000e1 -1.696322833000000e1 -1.629771069260000e1
-1.559397622160000e1 -1.485622753690000e1 -1.409020134000000e1 -1.330320122840000e1
-1.250401857080000e1 -1.170271082870000e1 -1.091021506560000e1 -1.013779140890000e1
-9.396317777140000e0 -8.695491713550000e0 -8.043032462019999e0 -7.444006993180000e0
-6.900414690520000e0 -6.411144017790000e0 -5.972353909630000e0 -5.578239062310000e0
-5.222035221720000e0 -4.897045222080000e0 -4.597455862230000e0 -4.318785284820000e0
-4.057928549360000e0 -3.812900282950000e0 -3.582447361770000e0 -3.365693679660000e0
-3.161905410330000e0 -2.970382032580000e0 -2.790429872900000e0 -2.621369843040000e0
-2.462549808680000e0 -2.313351580140000e0 -2.173192709190000e0 -2.041525620620000e0
-1.917835836190000e0 -1.801640036860000e0 -1.692484185110000e0 -1.589941752100000e0
-1.493612051040000e0 -1.403118671520000e0 -1.318108008700000e0 -1.238247881570000e0
-1.163226234950000e0 -1.092749920120000e0 -1.026543549350000e0 -9.643484198059999e-1
-9.059215026700000e-1 -8.510344934910000e-1 -7.994729200910000e-1 -7.510353044990000e-1
-7.055323756800000e-1 -6.627863299520000e-1 -6.226301362110000e-1 -5.849068832580000e-1
-5.494691666620000e-1 -5.161785127760000e-1 -4.849048376450000e-1 -4.555259387050000e-1
-4.279270172700000e-1 -4.020002299540000e-1 -3.776442672730000e-1 -3.547639577730000e-1
-3.332698961470000e-1 -3.130780938830000e-1 -2.941096510750000e-1 -2.762904481190000e-1
-2.595508560940000e-1 -2.438254646790000e-1 -2.290528265660000e-1 -2.151752173500000e-1
-2.021384099730000e-1 -1.898914628250000e-1 -1.783865206940000e-1 -1.675786277700000e-1
-1.574255519750000e-1 -1.478876199460000e-1 -1.389275620060000e-1 -1.305103665330000e-1
-1.226031431540000e-1 -1.151749942210000e-1 -1.081968940800000e-1 -1.016415756550000e-1
-9.548342389529999e-2
</PP_LOCAL>
<PP_NONLOCAL>
<PP_BETA.1 index="1" label="2S" angular_momentum="0" cutoff_radius_index="128" cutoff_radius="0.000000000000e0" ultrasoft_cutoff_radius="0.000000000000e0">
3.734987213000001e-2 3.975869162570000e-2 4.232285650080000e-2 4.505239025300000e-2
4.795794904090000e-2 5.105088377000000e-2 5.434328041930000e-2 5.784799498530000e-2
6.157872021239999e-2 6.555002805229999e-2 6.977742380470000e-2 7.427741587470001e-2
7.906758106120000e-2 8.416661728059999e-2 8.959443561659999e-2 9.537222354510000e-2
1.015225311740000e-1 1.080693602850000e-1 1.150382559420000e-1 1.224564003520000e-1
1.303527326310000e-1 1.387580420440000e-1 1.477050861800000e-1 1.572287374330000e-1
1.673660930470000e-1 1.781566237700000e-1 1.896423240170000e-1 2.018678741980000e-1
2.148807935910000e-1 2.287316417480000e-1 2.434741701640000e-1 2.591655531690000e-1
2.758665747450000e-1 2.936418549310000e-1 3.125600668210000e-1 3.326941938700000e-1
3.541217642050000e-1 3.769251008290000e-1 4.011916085990000e-1 4.270140647430000e-1
4.544908333210000e-1 4.837262107370000e-1 5.148306123250000e-1 5.479210235060000e-1
5.831210933010000e-1 6.205613830540000e-1 6.603795985650000e-1 7.027208204760001e-1
7.477373802690001e-1 7.955890345080000e-1 8.464425355940000e-1 9.004716317340000e-1
9.578559946140000e-1 1.018780693790000e0 1.083434517520000e0 1.152008027590000e0
1.224690877880000e0 1.301668003010000e0 1.383114527440000e0 1.469188935610000e0
1.560024351280000e0 1.655716586360000e0 1.756308979260000e0 1.861772865550000e0
1.971982232450000e0 2.086682153320000e0 2.205448962670000e0 2.327641230280000e0
2.452340578340000e0 2.578281568950000e0 2.703771313890000e0 2.826601387110000e0
2.943956111710000e0 3.052329146770000e0 3.147460161230000e0 3.224315800300000e0
3.277145419730000e0 3.299647806870000e0 3.285290053120000e0 3.227818876230000e0
3.121977781230000e0 2.964416687730000e0 2.754708718700000e0 2.496316081850000e0
2.197262748400000e0 1.870222709910000e0 1.531764229420000e0 1.200636921780000e0
8.952552914169999e-1 6.308590835980000e-1 4.170772714940000e-1 2.566403835480000e-1
1.456842586360000e-1 7.554448481290001e-2 3.539268994400000e-2 1.479695090760000e-2
5.444001665829999e-3 1.734989893040000e-3 4.704823696020000e-4 1.063788462600000e-4
1.959987994240000e-5 2.866984537630000e-6 3.232587204200000e-7 2.717069160660000e-8
1.639148116000000e-9 6.799206178399999e-11 1.847140867140000e-12 3.115310798219999e-14
2.492618911280001e-16 0.000000000000000e0 0.000000000000000e0 0.000000000000000e0
0.000000000000000e0 0.000000000000000e0 0.000000000000000e0 0.000000000000000e0
0.000000000000000e0 0.000000000000000e0 0.000000000000000e0 0.000000000000000e0
0.000000000000000e0 0.000000000000000e0 0.000000000000000e0 0.000000000000000e0
0.000000000000000e0 0.000000000000000e0 0.000000000000000e0 0.000000000000000e0
0.000000000000000e0 0.000000000000000e0 0.000000000000000e0 0.000000000000000e0
0.000000000000000e0 0.000000000000000e0 0.000000000000000e0 0.000000000000000e0
0.000000000000000e0 0.000000000000000e0 0.000000000000000e0 0.000000000000000e0
0.000000000000000e0 0.000000000000000e0 0.000000000000000e0 0.000000000000000e0
0.000000000000000e0 0.000000000000000e0 0.000000000000000e0 0.000000000000000e0
0.000000000000000e0 0.000000000000000e0 0.000000000000000e0 0.000000000000000e0
0.000000000000000e0 0.000000000000000e0 0.000000000000000e0 0.000000000000000e0
0.000000000000000e0
</PP_BETA.1>
<PP_DIJ>
2.031268144120000e0
</PP_DIJ>
</PP_NONLOCAL>
<PP_PSWFC>
<PP_CHI.1 index="1" label="2S" l="0" occupation="2.000000000000e0" n="0" pseudo_energy="0.000000000000e0" cutoff_radius="0.000000000000e0" ultrasoft_cutoff_radius="0.000000000000e0">
9.334617800000000e-4 9.936708700000002e-4 1.057764300000000e-3 1.125993000000000e-3
1.198623800000000e-3 1.275941000000000e-3 1.358247400000000e-3 1.445865200000000e-3
1.539137700000000e-3 1.638430400000000e-3 1.744132400000000e-3 1.856658200000000e-3
1.976449400000000e-3 2.103976100000000e-3 2.239739300000000e-3 2.384272600000000e-3
2.538144500000000e-3 2.701960800000000e-3 2.876367100000000e-3 3.062051400000000e-3
3.259747400000000e-3 3.470237200000001e-3 3.694354700000000e-3 3.932989800000000e-3
4.187091800000000e-3 4.457673900000001e-3 4.745817900000000e-3 5.052679400000000e-3
5.379493000000000e-3 5.727579000000000e-3 6.098349199999999e-3 6.493315099999998e-3
6.914095500000000e-3 7.362425699999999e-3 7.840167199999999e-3 8.349319299999999e-3
8.892031200000000e-3 9.470615799999999e-3 1.008756600000000e-2 1.074557300000000e-2
1.144754500000000e-2 1.219663200000000e-2 1.299625000000000e-2 1.385011600000000e-2
1.476227900000000e-2 1.573716100000000e-2 1.677960500000000e-2 1.789493200000000e-2
1.908900000000000e-2 2.036828400000000e-2 2.173995700000000e-2 2.321200200000000e-2
2.479332100000000e-2 2.649388800000000e-2 2.832490900000000e-2 3.029902000000000e-2
3.243052099999999e-2 3.473564800000000e-2 3.723289400000001e-2 3.994338500000000e-2
4.289132900000000e-2 4.610452800000000e-2 4.961498400000000e-2 5.345960300000000e-2
5.768099599999999e-2 6.232840800000000e-2 6.745875899999999e-2 7.313780500000000e-2
7.944141100000000e-2 8.645690100000001e-2 9.428443699999999e-2 1.030383500000000e-1
1.128482500000000e-1 1.238598100000000e-1 1.362348300000000e-1 1.501502700000000e-1
1.657957800000000e-1 1.833690700000000e-1 2.030684000000000e-1 2.250816500000000e-1
2.495710400000000e-1 2.766535100000000e-1 3.063767000000000e-1 3.386917900000000e-1
3.734254800000000e-1 4.102545800000000e-1 4.486879800000000e-1 4.880612200000000e-1
5.275478700000001e-1 5.661902400000000e-1 6.029478299999999e-1 6.367582899999999e-1
6.666023200000000e-1 6.915628200000000e-1 7.108707300000000e-1 7.239339700000000e-1
7.303505100000000e-1 7.299098200000000e-1 7.225876200000000e-1 7.085373700000001e-1
6.880798200000000e-1 6.616901700000000e-1 6.299820800000000e-1 5.936879400000000e-1
5.536354700000000e-1 5.107212000000000e-1 4.658816600000000e-1 4.200632500000000e-1
3.741919200000000e-1 3.291435800000000e-1 2.857165700000000e-1 2.446073000000000e-1
2.063903500000000e-1 1.715040700000000e-1 1.402428200000000e-1 1.127562600000000e-1
8.905602499999999e-2 6.902914600000000e-2 5.245733300000000e-2 3.904045700000000e-2
2.842233400000000e-2 2.021671900000000e-2 1.403149700000000e-2 9.489430100000000e-3
6.244254800000000e-3 3.991585300000000e-3 2.474625700000000e-3 1.485249400000000e-3
8.613682799999999e-4 4.817202500000000e-4 2.592224000000000e-4 1.339089600000000e-4
6.624001300000000e-5 3.129212900000000e-5 1.407567000000000e-5 6.007850800000000e-6
2.426519200000000e-6 9.241950700000000e-7 3.306574700000001e-7 1.106716800000000e-7
3.451081900000000e-8 1.002444300000000e-8 2.881553200000000e-9 7.628146299999999e-10
1.849817500000000e-10 4.086005700000000e-11 8.171721699999999e-12 1.470240400000000e-12
2.363521000000000e-13 3.370326700000001e-14 4.230264900000002e-15 4.635230000000002e-16
4.395191000000000e-17 3.573025900000000e-18 2.465667599999999e-19 1.429166300000000e-20
6.880101400000001e-22
</PP_CHI.1>
<PP_CHI.2 index="2" label="2P" l="1" occupation="1.000000000000e0" n="0" pseudo_energy="0.000000000000e0" cutoff_radius="6.901155040372e-310" ultrasoft_cutoff_radius="6.901155040372e-310">
2.418631000000000e-5 2.740658000000000e-5 3.105559700000000e-5 3.519043800000000e-5
3.987578100000000e-5 4.518491100000000e-5 5.120086700000000e-5 5.801774000000000e-5
6.574214300000001e-5 7.449487599999999e-5 8.441281499999999e-5 9.565104500000000e-5
1.083852900000000e-4 1.228146300000000e-4 1.391646600000000e-4 1.576909400000000e-4
1.786830400000000e-4 2.024690000000000e-4 2.294205000000000e-4 2.599585700000000e-4
2.945602100000000e-4 3.337657600000000e-4 3.781873000000000e-4 4.285181400000000e-4
4.855435700000000e-4 5.501530300000001e-4 6.233538000000001e-4 7.062866000000000e-4
8.002431000000001e-4 9.066857799999999e-4 1.027270400000000e-3 1.163871100000000e-3
1.318609300000000e-3 1.493885600000000e-3 1.692416200000000e-3 1.917273600000000e-3
2.171932900000000e-3 2.460323300000000e-3 2.786886000000000e-3 3.156639600000000e-3
3.575252800000000e-3 4.049126000000000e-3 4.585482200000000e-3 5.192468000000000e-3
5.879266400000001e-3 6.656221000000001e-3 7.534973300000001e-3 8.528613600000000e-3
9.651845700000001e-3 1.092116600000000e-2 1.235505800000000e-2 1.397419800000000e-2
1.580167500000000e-2 1.786321900000000e-2 2.018744000000000e-2 2.280606200000000e-2
2.575415600000000e-2 2.907036000000000e-2 3.279706200000000e-2 3.698055600000000e-2
4.167111700000000e-2 4.692300500000000e-2 5.279433500000000e-2 5.934681299999999e-2
6.664526100000000e-2 7.475691600000001e-2 8.375044200000000e-2 9.369460699999999e-2
1.046565800000000e-1 1.166998400000000e-1 1.298816200000000e-1 1.442499600000000e-1
1.598404600000000e-1 1.766726400000000e-1 1.947463400000000e-1 2.140382100000000e-1
2.344986500000000e-1 2.560494800000000e-1 2.785828700000000e-1 3.019615800000000e-1
3.260209600000000e-1 3.505725900000000e-1 3.754093800000000e-1 4.003115400000000e-1
4.250526000000000e-1 4.494045300000000e-1 4.731409100000000e-1 4.960376100000000e-1
5.178706900000000e-1 5.384123700000000e-1 5.574263800000000e-1 5.746646900000000e-1
5.898674000000001e-1 6.027671000000000e-1 6.130976900000000e-1 6.206065700000000e-1
6.250679700000000e-1 6.262953599999999e-1 6.241512400000000e-1 6.185537800000001e-1
6.094803900000000e-1 5.969690500000000e-1 5.811178500000000e-1 5.620833699999999e-1
5.400780400000000e-1 5.153667400000001e-1 4.882625700000000e-1 4.591218500000000e-1
4.283381600000000e-1 3.963352900000000e-1 3.635590300000000e-1 3.304674600000000e-1
2.975199800000000e-1 2.651652100000000e-1 2.338281800000000e-1 2.038974900000000e-1
1.757132200000000e-1 1.495563900000000e-1 1.256409200000000e-1 1.041086500000000e-1
8.502788299999999e-2 6.839555700000000e-2 5.414296500000000e-2 4.214443500000000e-2
3.222833200000000e-2 2.418950500000000e-2 1.780222500000000e-2 1.283270200000000e-2
9.050350900000002e-3 6.237179700000000e-3 4.194882399999999e-3 2.749472100000000e-3
1.753538500000000e-3 1.086405900000000e-3 6.526136000000000e-4 3.792546100000000e-4
2.129432600000000e-4 1.152774800000000e-4 6.002487400000000e-5 2.998593500000000e-5
1.433296100000000e-5 6.537369900000000e-6 2.839332900000000e-6 1.177938200000000e-6
4.857430799999999e-7 1.889138400000000e-7 6.903008800000000e-8 2.360310900000000e-8
7.519379399999999e-9 2.221685900000000e-9 6.058277600000000e-10 1.516782900000000e-10
3.467387300000000e-11 7.194962800000003e-12 1.346729200000000e-12 2.258711900000000e-13
3.370445100000000e-14
</PP_CHI.2>
</PP_PSWFC>
<PP_RHOATOM>
1.743286767030000e-6 1.975514716399999e-6 2.238695078810000e-6 2.536958839020000e-6
2.874988105760000e-6 3.258092547140000e-6 3.692293528000001e-6 4.184418411300000e-6
4.742211748490001e-6 5.374457837840001e-6 6.091121180799998e-6 6.903508465660000e-6
7.824451832610000e-6 8.868514292080000e-6 1.005223106650000e-5 1.139437809480000e-5
1.291628263450000e-5 1.464217802540000e-5 1.659960915370000e-5 1.881989601060000e-5
2.133867194090000e-5 2.419649203110000e-5 2.743953893270000e-5 3.112044533009999e-5
3.529922804160001e-5 4.004438155390000e-5 4.543414503990000e-5 5.155797899970000e-5
5.851827889320001e-5 6.643240150610001e-5 7.543501040499999e-5 8.568087791320000e-5
9.734816365229999e-5 1.106423185620000e-4 1.258007160420000e-4 1.430982036040000e-4
1.628537302460000e-4 1.854383180030000e-4 2.112847091860000e-4 2.408990517610000e-4
2.748750056380000e-4 3.139110856510000e-4 3.588316751320000e-4 4.106131503580000e-4
4.704155359500001e-4 5.396217506809999e-4 6.198861105440000e-4 7.131944325070001e-4
8.219379674170000e-4 9.490058530089998e-4 1.097898918910000e-3 1.272872283440000e-3
1.479110465220000e-3 1.722946795760000e-3 2.012133673470000e-3 2.356177689870000e-3
2.766753935940000e-3 3.258216314490000e-3 3.848224067060000e-3 4.558509532590000e-3
5.415814198800000e-3 6.453023402440000e-3 7.710535082729999e-3 9.237902519089999e-3
1.109578541290000e-2 1.335825737750000e-2 1.611550486680000e-2 1.947695642130000e-2
2.357487530060000e-2 2.856844411710000e-2 3.464834533459999e-2 4.204185410140000e-2
5.101842770910000e-2 6.189572679099999e-2 7.504599475370000e-2 9.090256250210000e-2
1.099660981830000e-1 1.328097678740000e-1 1.600819656150000e-1 1.925042941300000e-1
2.308610743730000e-1 2.759754700500000e-1 3.286655671980000e-1 3.896735862840000e-1
4.595628909930000e-1 5.385820724060000e-1 6.265041275090000e-1 7.224608194700000e-1
8.248035618440001e-1 9.310306559119999e-1 1.037816340520000e0 1.141161745700000e0
1.236660855640000e0 1.319846444860000e0 1.386563167020000e0 1.433313300570000e0
1.457533702030000e0 1.457782568620000e0 1.433830507550000e0 1.386659188130000e0
1.318374023180000e0 1.232039808810000e0 1.131452797830000e0 1.020868455030000e0
9.047087565740000e-1 7.872751649570001e-1 6.724917795120000e-1 5.636991411489999e-1
4.635127652990000e-1 3.737526546100000e-1 2.954430850400000e-1 2.288742045450000e-1
1.737120916450000e-1 1.291398806470000e-1 9.401171488520001e-2 6.700213476670001e-2
4.673708686040000e-2 3.189715978480000e-2 2.128918434940000e-2 1.388692557040000e-2
8.845399027479999e-3 5.495383671590000e-3 3.325226475110000e-3 1.956251968710000e-3
1.116646819520000e-3 6.169976585590000e-4 3.291667596610000e-4 1.690901721810000e-4
8.339276204070000e-5 3.936651940860001e-5 1.773143085520000e-5 7.595460047810000e-6
3.083672749630000e-6 1.182236174230000e-6 4.263007598770000e-7 1.439062477490000e-7
4.535660797030000e-8 1.329060566820000e-8 3.603204167439999e-9 8.991807942659998e-10
2.054361530210000e-10 4.273740618830001e-11 8.061827923719997e-12 1.387539566790000e-12
2.359464082039999e-13 3.568844228260000e-14 4.765153182840001e-15 5.571067587890001e-16
5.654106667289999e-17 4.935888240530000e-18 3.670272748220000e-19 2.300630365780000e-20
1.202277468820000e-21 5.176748969340000e-23 1.813679538130000e-24 5.101779447199998e-26
1.135990017210000e-27
</PP_RHOATOM>
</UPF>
