<UPF version="2.0.1">
<PP_INFO>
Generated by new atomic code, or converted to UPF format
Author:
Generation date:
Pseudopotential type: NC
Element: Mg
Functional:  SLA  PZ   NOGX NOGC
Suggested minimum cutoff for wavefunctions:   0. Ry
Suggested minimum cutoff for charge density:   0. Ry
The Pseudo was generated with a Non-Relativistic Calculation
L component and cutoff radius for Local Potential:  0   0.0000
Valence configuration:
nl pn  l   occ       Rcut    Rcut US       E pseu
3S  0  0  2.00      0.000      0.000     0.000000
3P  0  1  0.00      0.000      0.000     0.000000
Generation configuration: not available.
</PP_INFO>
<!--
END OF HUMAN READABLE SECTION
-->
<PP_HEADER generated="Generated by new atomic code, or converted to UPF format" author="" date="" comment="" element="Mg" pseudo_type="NC" relativistic="no" is_ultrasoft="false" is_paw="false" is_coulomb="false" has_so="false" has_wfc="false" has_gipaw="false" paw_as_gipaw="false" core_correction="true" functional=" SLA  PZ   NOGX NOGC" z_valence="2.000000000000e0" total_psenergy="0.000000000000e0" wfc_cutoff="0.000000000000e0" rho_cutoff="0.000000000000e0" l_max="1" l_max_rho="0" l_local="0" mesh_size="171" number_of_wfc="2" number_of_proj="2"/>
<PP_MESH dx="6.249999999999e-2" mesh="171" xmin="-3.999999999999e0" rmax="6.280868437950e1" zmesh="1.200000000000e1">
<PP_R>
1.526303240730000e-3 1.624741342380000e-3 1.729528156140000e-3 1.841073138760000e-3
1.959812154670000e-3 2.086209179160000e-3 2.220758111360000e-3 2.363984704140000e-3
2.516448618529999e-3 2.678745610570000e-3 2.851509859310000e-3 3.035416444780000e-3
3.231183985980000e-3 3.439577448820000e-3 3.661411135280001e-3 3.897551865330000e-3
4.148922363990000e-3 4.416504866950000e-3 4.701344958650000e-3 5.004555657940001e-3
5.327321767230000e-3 5.670904502080000e-3 6.036646419520000e-3 6.425976664029999e-3
6.840416551990001e-3 7.281585516290000e-3 7.751207434219999e-3 8.251117363650000e-3
8.783268713489999e-3 9.349740876699999e-3 9.952747355560000e-3 1.059464441100000e-2
1.127794026970000e-2 1.200530492510000e-2 1.277958057040000e-2 1.360379270450000e-2
1.448116195420000e-2 1.541511665890000e-2 1.640930626700000e-2 1.746761559590000e-2
1.859418001240000e-2 1.979340159130000e-2 2.106996631710000e-2 2.242886239410000e-2
2.387539973830000e-2 2.541523072590000e-2 2.705437227990000e-2 2.879922938140000e-2
3.065662009760000e-2 3.263380222310000e-2 3.473850163990000e-2 3.697894250680000e-2
3.936387939510000e-2 4.190263149760000e-2 4.460511904320000e-2 4.748190206090000e-2
5.054422164269999e-2 5.380404386900000e-2 5.727410656589999e-2 6.096796907890000e-2
6.490006525600000e-2 6.908575984840000e-2 7.354140854870001e-2 7.828442190109999e-2
8.333333333330000e-2 8.870787157650000e-2 9.442903775560001e-2 1.005191874520000e-1
1.070021180570000e-1 1.139031617640000e-1 1.212492845520000e-1 1.290691915530000e-1
1.373934392250000e-1 1.462545547470000e-1 1.556871631190000e-1 1.657281224650000e-1
1.764166680510000e-1 1.877945656010000e-1 1.999062744970000e-1 2.127991215050000e-1
2.265234857050000e-1 2.411329953480000e-1 2.566847374100000e-1 2.732394806620000e-1
2.908619131220000e-1 3.096208948280000e-1 3.295897269100000e-1 3.508464380120000e-1
3.734740891950000e-1 3.975610984970000e-1 4.232015864320000e-1 4.504957437620000e-1
4.795502230000000e-1 5.104785551570000e-1 5.434015933610000e-1 5.784479851000000e-1
6.157546749110000e-1 6.554674394950000e-1 6.977414573439999e-1 7.427419151000000e-1
7.906446530300000e-1 8.416368521230000e-1 8.959177655060000e-1 9.536994970280000e-1
1.015207830060000e0 1.080683109750000e0 1.150381182170000e0 1.224574394070000e0
1.303552657020000e0 1.387624580300000e0 1.477118676790000e0 1.572384646610000e0
1.673794743600000e0 1.781745229930000e0 1.896657924460000e0 2.018981851050000e0
2.149194993100000e0 2.287806161290000e0 2.435356981770000e0 2.592424012580000e0
2.759620996560000e0 2.937601259550000e0 3.127060263300000e0 3.328738322990000e0
3.543423500010000e0 3.771954681350000e0 4.015224857590000e0 4.274184612220000e0
4.549845836100000e0 4.843285681450000e0 5.155650770860000e0 5.488161677700000e0
5.842117695560000e0 6.218901915270000e0 6.619986629360000e0 7.046939085060000e0
7.501427608380000e0 7.985228123090000e0 8.500231090220000e0 9.048448895070001e0
9.632023710600000e0 1.025323586810000e1 1.091451276760000e1 1.161843836290000e1
1.236776325850000e1 1.316541545790000e1 1.401451180430000e1 1.491837016010000e1
1.588052237160000e1 1.690472806920000e1 1.799498935920000e1 1.915556646120000e1
2.039099435540000e1 2.170610050310000e1 2.310602371030000e1 2.459623420720000e1
2.618255502380000e1 2.787118474320000e1 2.966872172260000e1 3.158218987680000e1
3.361906612440000e1 3.578730960340000e1 3.809539277240000e1 4.055233451649999e1
4.316773538900001e1 4.595181512570000e1 4.891545257850001e1 5.207022822520000e1
5.542846942040001e1 5.900329856430001e1 6.280868437950001e1
</PP_R>
<PP_RAB>
9.539395254550000e-5 1.015463338990000e-4 1.080955097590000e-4 1.150670711720000e-4
1.224882596670000e-4 1.303880736980000e-4 1.387973819600000e-4 1.477490440090000e-4
1.572780386580000e-4 1.674216006610000e-4 1.782193662070000e-4 1.897135277990000e-4
2.019489991240000e-4 2.149735905510000e-4 2.288381959550001e-4 2.435969915830000e-4
2.593076477490000e-4 2.760315541840000e-4 2.938340599160000e-4 3.127847286210000e-4
3.329576104520000e-4 3.544315313800000e-4 3.772904012200000e-4 4.016235415020001e-4
4.275260344990000e-4 4.550990947680001e-4 4.844504646390000e-4 5.156948352280000e-4
5.489542945930000e-4 5.843588047930001e-4 6.220467097220000e-4 6.621652756880001e-4
7.048712668570001e-4 7.503315578200000e-4 7.987237856509999e-4 8.502370440309999e-4
9.050726221380000e-4 9.634447911839999e-4 1.025581641690000e-3 1.091725974750000e-3
1.162136250770000e-3 1.237087599460000e-3 1.316872894820000e-3 1.401803899630000e-3
1.492212483650000e-3 1.588451920370000e-3 1.690898267490000e-3 1.799951836340000e-3
1.916038756100000e-3 2.039612638940000e-3 2.171156352490000e-3 2.311183906670000e-3
2.460242462190000e-3 2.618914468600000e-3 2.787819940200000e-3 2.967618878810000e-3
3.159013852670000e-3 3.362752741810000e-3 3.579631660370000e-3 3.810498067430000e-3
4.056254078500000e-3 4.317859990520000e-3 4.596338034290000e-3 4.892776368820001e-3
5.208333333330000e-3 5.544241973529999e-3 5.901814859720000e-3 6.282449215730001e-3
6.687632378580000e-3 7.118947610279999e-3 7.578080284470000e-3 8.066824472050000e-3
8.587089951560001e-3 9.140909671670000e-3 9.730447694960001e-3 1.035800765410000e-2
1.102604175320000e-2 1.173716035010000e-2 1.249414215610000e-2 1.329994509410000e-2
1.415771785660000e-2 1.507081220920000e-2 1.604279608810000e-2 1.707746754130000e-2
1.817886957010000e-2 1.935130592680000e-2 2.059935793190000e-2 2.192790237570000e-2
2.334213057470000e-2 2.484756865610000e-2 2.645009915200000e-2 2.815598398510000e-2
2.997188893750000e-2 3.190490969730000e-2 3.396259958510000e-2 3.615299906870000e-2
3.848466718190000e-2 4.096671496850000e-2 4.360884108400000e-2 4.642136969370000e-2
4.941529081440000e-2 5.260230325770000e-2 5.599486034409999e-2 5.960621856420000e-2
6.345048937870001e-2 6.754269435920000e-2 7.189882388580000e-2 7.653589962910000e-2
8.147204106350001e-2 8.672653626880001e-2 9.231991729930000e-2 9.827404041279999e-2
1.046121714750000e-1 1.113590768700000e-1 1.185411202790000e-1 1.261863656910000e-1
1.343246870690000e-1 1.429878850810000e-1 1.522098113610000e-1 1.620265007860000e-1
1.724763122850000e-1 1.836000787220000e-1 1.954412664560000e-1 2.080461451870000e-1
2.214639687500000e-1 2.357471675850000e-1 2.509515535990000e-1 2.671365382630000e-1
2.843653647560000e-1 3.027053550910000e-1 3.222281731790000e-1 3.430101048560000e-1
3.651323559720000e-1 3.886813697040000e-1 4.137491643350000e-1 4.404336928159999e-1
4.688392255240000e-1 4.990767576930000e-1 5.312644431390000e-1 5.655280559420000e-1
6.020014819120000e-1 6.408272417560000e-1 6.821570479730000e-1 7.261523976790000e-1
7.729852036590001e-1 8.228384661210001e-1 8.759069877700000e-1 9.323981350090001e-1
9.925326482220001e-1 1.056545504330000e0 1.124686834950000e0 1.197222903820000e0
1.274437147210000e0 1.356631281440000e0 1.444126481890000e0 1.537264637950000e0
1.636409688990000e0 1.741949046450000e0 1.854295107660000e0 1.973886867300000e0
2.101191632770000e0 2.236706850210000e0 2.380962048280000e0 2.534520907280000e0
2.697983461810000e0 2.871988445350000e0 3.057215786150000e0 3.254389264080000e0
3.464279338770000e0 3.687706160270000e0 3.925542773720000e0
</PP_RAB>
</PP_MESH>
<PP_NLCC columns="4">
4.794801223930000e-2 4.794801386900000e-2 4.794801571560000e-2 4.794801780800000e-2
4.794802017909999e-2 4.794802286580000e-2 4.794802591030000e-2 4.794802936010000e-2
4.794803326919999e-2 4.794803769870000e-2 4.794804271800000e-2 4.794804840550000e-2
4.794805485019999e-2 4.794806215290000e-2 4.794807042780000e-2 4.794807980430000e-2
4.794809042900000e-2 4.794810246800000e-2 4.794811610970000e-2 4.794813156709999e-2
4.794814908210000e-2 4.794816892830000e-2 4.794819141580000e-2 4.794821689610000e-2
4.794824576730000e-2 4.794827848030000e-2 4.794831554600000e-2 4.794835754300000e-2
4.794840512700000e-2 4.794845904040001e-2 4.794852012400000e-2 4.794858933050000e-2
4.794866773820000e-2 4.794875656860000e-2 4.794885720449999e-2 4.794897121140000e-2
4.794910036180000e-2 4.794924666140000e-2 4.794941238040000e-2 4.794960008750000e-2
4.794981268830000e-2 4.795005346920000e-2 4.795032614630000e-2 4.795063492010000e-2
4.795098453710000e-2 4.795138035920000e-2 4.795182844020001e-2 4.795233561250000e-2
4.795290958190001e-2 4.795355903490000e-2 4.795429375529999e-2 4.795512475420000e-2
4.795606441180000e-2 4.795712663240001e-2 4.795832701180000e-2 4.795968301749999e-2
4.796121418050000e-2 4.796294229500000e-2 4.796489162550000e-2 4.796708911320000e-2
4.796956457689999e-2 4.797235089620000e-2 4.797548416310000e-2 4.797900378310000e-2
4.798295249790000e-2 4.798737629490000e-2 4.799232415740001e-2 4.799784759140000e-2
4.800399985150000e-2 4.801083475780000e-2 4.801840497110000e-2 4.802675954930000e-2
4.803594056290000e-2 4.804597848389999e-2 4.805688598690000e-2 4.806864970409999e-2
4.808121936300000e-2 4.809449358859999e-2 4.810830148480000e-2 4.812237890270000e-2
4.813633806450000e-2 4.814962893890000e-2 4.816149045530000e-2 4.817088931640000e-2
4.817644383460000e-2 4.817632991390000e-2 4.816816607250000e-2 4.814887433800000e-2
4.811451405890000e-2 4.806008633359999e-2 4.797930808240000e-2 4.786435708610000e-2
4.770559295350000e-2 4.749126440830000e-2 4.720722098660000e-2 4.683665766060000e-2
4.635993434820000e-2 4.575452864410000e-2 4.499519864080000e-2 4.405445145050000e-2
4.290342836350000e-2 4.151332354150000e-2 3.985744115000000e-2 3.791395471680000e-2
3.566934982150000e-2 3.312239630210001e-2 3.028830573400000e-2 2.720249638590000e-2
2.392314918270000e-2 2.053156586020000e-2 1.712933874950000e-2 1.383162877330000e-2
1.075651161110000e-2 8.011377273359999e-3 5.678564095540000e-3 3.803374127050000e-3
2.387821502420000e-3 1.392474401690000e-3 7.465566277430002e-4 3.637352928770000e-4
1.589477141360000e-4 6.137937819059999e-5 2.059670344660000e-5 5.892899449760001e-6
1.406949712820000e-6 2.735748538340000e-7 4.214582159370001e-8 4.986116270489998e-9
4.372733760969999e-10 2.731142111650001e-11 1.161039512850000e-12 3.191222144330000e-14
0.000000000000000e0 0.000000000000000e0 0.000000000000000e0 0.000000000000000e0
0.000000000000000e0 0.000000000000000e0 0.000000000000000e0 0.000000000000000e0
0.000000000000000e0 0.000000000000000e0 0.000000000000000e0 0.000000000000000e0
0.000000000000000e0 0.000000000000000e0 0.000000000000000e0 0.000000000000000e0
0.000000000000000e0 0.000000000000000e0 0.000000000000000e0 0.000000000000000e0
0.000000000000000e0 0.000000000000000e0 0.000000000000000e0 0.000000000000000e0
0.000000000000000e0 0.000000000000000e0 0.000000000000000e0 0.000000000000000e0
0.000000000000000e0 0.000000000000000e0 0.000000000000000e0 0.000000000000000e0
0.000000000000000e0 0.000000000000000e0 0.000000000000000e0 0.000000000000000e0
0.000000000000000e0 0.000000000000000e0 0.000000000000000e0
</PP_NLCC>
<PP_LOCAL columns="4">
-2.463758225310000e0 -2.463761057790000e0 -2.463764267420000e0 -2.463767904390000e0
-2.463772025620000e0 -2.463776695560000e0 -2.463781987290000e0 -2.463787983580000e0
-2.463794778250000e0 -2.463802477590000e0 -2.463811202040000e0 -2.463821088080000e0
-2.463832290380000e0 -2.463844984150000e0 -2.463859367970000e0 -2.463875666840000e0
-2.463894135700000e0 -2.463915063430000e0 -2.463938777360000e0 -2.463965648380000e0
-2.463996096750000e0 -2.464030598650000e0 -2.464069693630000e0 -2.464113993010000e0
-2.464164189460000e0 -2.464221067800000e0 -2.464285517220000e0 -2.464358545180000e0
-2.464441293120000e0 -2.464535054200000e0 -2.464641293500000e0 -2.464761670800000e0
-2.464898066390000e0 -2.465052610310000e0 -2.465227715430000e0 -2.465426114860000e0
-2.465650904340000e0 -2.465905590140000e0 -2.466194143240000e0 -2.466521060600000e0
-2.466891434450000e0 -2.467311030480000e0 -2.467786376300000e0 -2.468324861210000e0
-2.468934848830000e0 -2.469625804100000e0 -2.470408436480000e0 -2.471294861200000e0
-2.472298780670000e0 -2.473435688540000e0 -2.474723098800000e0 -2.476180802700000e0
-2.477831156570000e0 -2.479699403580000e0 -2.481814032740000e0 -2.484207178730000e0
-2.486915065710000e0 -2.489978498780000e0 -2.493443405960000e0 -2.497361433500000e0
-2.501790596320000e0 -2.506795984520000e0 -2.512450524770000e0 -2.518835793820000e0
-2.526042877310000e0 -2.534173263600000e0 -2.543339756200000e0 -2.553667381070000e0
-2.565294255720000e0 -2.578372374610000e0 -2.593068250260000e0 -2.609563329990000e0
-2.628054085090000e0 -2.648751640180000e0 -2.671880776870000e0 -2.697678105560000e0
-2.726389154080000e0 -2.758264071790000e0 -2.793551594770000e0 -2.832490866730000e0
-2.875300665750000e0 -2.922165559840000e0 -2.973218517320000e0 -3.028519551200000e0
-3.088030104220000e0 -3.151583116410000e0 -3.218849096470000e0 -3.289299083320000e0
-3.362166171900000e0 -3.436408310430000e0 -3.510676345590000e0 -3.583292729640000e0
-3.652247752010000e0 -3.715221333170000e0 -3.769638882040000e0 -3.812768873790000e0
-3.841866952660000e0 -3.854365843880000e0 -3.848101823810000e0 -3.821557313720000e0
-3.774086884140000e0 -3.706083679720000e0 -3.619039565890000e0 -3.515460281280000e0
-3.398620188370000e0 -3.272179025680000e0 -3.139727344030000e0 -3.004362405310000e0
-2.868403283050000e0 -2.733320018320000e0 -2.599881626920000e0 -2.468448253880000e0
-2.339282922060000e0 -2.212766418020000e0 -2.089460437770000e0 -1.970041372550000e0
-1.855175269190000e0 -1.745404459110000e0 -1.641083903820000e0 -1.542370469730000e0
-1.449249315950000e0 -1.361578069220000e0 -1.279133410310000e0 -1.201650413320000e0
-1.128850454160000e0 -1.060457879680000e0 -9.962081808330000e-1 -9.358510088379999e-1
-8.791506662650001e-1 -8.258856204150000e-1 -7.758477402310000e-1 -7.288415019280000e-1
-6.846832276320000e-1 -6.432003679270000e-1 -6.042308276370000e-1 -5.676223324370000e-1
-5.332318338360000e-1 -5.009249502130000e-1 -4.705754417190001e-1 -4.420647169900000e-1
-4.152813697500000e-1 -3.901207434860000e-1 -3.664845225050000e-1 -3.442803477600000e-1
-3.234214559560000e-1 -3.038263405190000e-1 -2.854184331110000e-1 -2.681258044320000e-1
-2.518808831610000e-1 -2.366201919140000e-1 -2.222840992100000e-1 -2.088165864530000e-1
-1.961650290460000e-1 -1.842799907530000e-1 -1.731150305290000e-1 -1.626265210480000e-1
-1.527734782320000e-1 -1.435174011030000e-1 -1.348221213370000e-1 -1.266536619400000e-1
-1.189801044800000e-1 -1.117714643630000e-1 -1.049995736730000e-1 -9.863797109810001e-2
-9.266179853890000e-2 -8.704770397130000e-2 -8.177375019850000e-2 -7.681932913170000e-2
-7.216508126290000e-2 -6.779282001740000e-2 -6.368546068930002e-2
</PP_LOCAL>
<PP_NONLOCAL>
<PP_BETA.1 index="1" label="3S" angular_momentum="0" cutoff_radius_index="142" cutoff_radius="0.000000000000e0" ultrasoft_cutoff_radius="0.000000000000e0">
1.405100784570000e-3 1.495722652960000e-3 1.592189094900000e-3 1.694877396880000e-3
1.804188694900000e-3 1.920550155210000e-3 2.044416573060000e-3 2.176271971090000e-3
2.316631633870000e-3 2.466044287450000e-3 2.625093696590000e-3 2.794401716060000e-3
2.974629886620000e-3 3.166482775720000e-3 3.370710153470000e-3 3.588110622060000e-3
3.819534080009999e-3 4.065884912030000e-3 4.328126631220000e-3 4.607284482500001e-3
4.904450079220000e-3 5.220785599769999e-3 5.557528416120000e-3 5.915995571430001e-3
6.297589560380001e-3 6.703803665239999e-3 7.136227427950002e-3 7.596553710779999e-3
8.086584870599999e-3 8.608239934619998e-3 9.163562628839999e-3 9.754729091520000e-3
1.038405715730000e-2 1.105401502430000e-2 1.176723176990000e-2 1.252650766920000e-2
1.333482561550000e-2 1.419536392040000e-2 1.511150844150000e-2 1.608686751020000e-2
1.712528600000000e-2 1.823086330820000e-2 1.940797012610000e-2 2.066126454180000e-2
2.199571658480000e-2 2.341662661500000e-2 2.492965493030000e-2 2.654083633850000e-2
2.825662319850000e-2 3.008390011130000e-2 3.203003115370000e-2 3.410288859220000e-2
3.631089191790000e-2 3.866305691250000e-2 4.116904277810000e-2 4.383920127150000e-2
4.668464474760000e-2 4.971730488550000e-2 5.295001180730000e-2 5.639657519750000e-2
6.007187929330000e-2 6.399198446260001e-2 6.817425382210001e-2 7.263748086340000e-2
7.740204854040000e-2 8.249009739560000e-2 8.792572858729999e-2 9.373523173919999e-2
9.994733617489999e-2 1.065935066460000e-1 1.137082775350000e-1 1.213296306680000e-1
1.294994218420000e-1 1.382638541840000e-1 1.476740177230000e-1 1.577864592430000e-1
1.686638593130000e-1 1.803756325170000e-1 1.929986869540000e-1 2.066180892730000e-1
2.213276329150000e-1 2.372303444400000e-1 2.544386497870000e-1 2.730741381470000e-1
2.932666633510000e-1 3.151523759280000e-1 3.388703368940000e-1 3.645570573420000e-1
3.923382558250000e-1 4.223166984270000e-1 4.545552710220000e-1 4.890537039070000e-1
5.257177932619999e-1 5.643201169180000e-1 6.044517285260000e-1 6.454659530820001e-1
6.864174098710000e-1 7.260033451709999e-1 7.625185645969999e-1 7.938415747500000e-1
8.174742193229999e-1 8.306613127820000e-1 8.306117515720000e-1 8.148317140070001e-1
7.815541992220000e-1 7.302102919020000e-1 6.618463098090000e-1 5.793594113350000e-1
4.874251160820000e-1 3.920395352090000e-1 2.996994679610000e-1 2.163681108280000e-1
1.464788700490000e-1 9.226115670220000e-2 5.359594234130000e-2 2.843732852620000e-2
1.363231495000000e-2 5.832857120080000e-3 2.197157854869999e-3 7.174034074380000e-4
1.994949076340000e-4 4.630870684730000e-5 8.771137446679999e-6 1.320845738790000e-6
1.535495831720000e-7 1.332567771660000e-8 8.310359182530000e-10 3.566159618059999e-11
1.002223931820000e-12 1.743461455210000e-14 1.818992823030001e-16 0.000000000000000e0
0.000000000000000e0 0.000000000000000e0 0.000000000000000e0 0.000000000000000e0
0.000000000000000e0 0.000000000000000e0 0.000000000000000e0 0.000000000000000e0
0.000000000000000e0 0.000000000000000e0 0.000000000000000e0 0.000000000000000e0
0.000000000000000e0 0.000000000000000e0 0.000000000000000e0 0.000000000000000e0
0.000000000000000e0 0.000000000000000e0 0.000000000000000e0 0.000000000000000e0
0.000000000000000e0 0.000000000000000e0 0.000000000000000e0 0.000000000000000e0
0.000000000000000e0 0.000000000000000e0 0.000000000000000e0 0.000000000000000e0
0.000000000000000e0 0.000000000000000e0 0.000000000000000e0 0.000000000000000e0
0.000000000000000e0 0.000000000000000e0 0.000000000000000e0 0.000000000000000e0
0.000000000000000e0 0.000000000000000e0 0.000000000000000e0
</PP_BETA.1>
<PP_BETA.2 index="2" label="3P" angular_momentum="1" cutoff_radius_index="142" cutoff_radius="0.000000000000e0" ultrasoft_cutoff_radius="0.000000000000e0">
9.432343544249999e-7 1.068824908040000e-6 1.211137789610000e-6 1.372399540240000e-6
1.555133177580000e-6 1.762197782360000e-6 1.996833003700000e-6 2.262709929830000e-6
2.563988420890000e-6 2.905382302570000e-6 3.292233047830000e-6 3.730593345659999e-6
4.227321956010000e-6 4.790190864530000e-6 5.428006908230000e-6 6.150750091930001e-6
6.969728838970001e-6 7.897758206229999e-6 8.949358463910000e-6 1.014098518290000e-5
1.149128490610000e-5 1.302138750180000e-5 1.475523617450000e-5 1.671996430820000e-5
1.894631867840000e-5 2.146914207510000e-5 2.432791825860000e-5 2.756739037820000e-5
3.123826399229999e-5 3.539799909319999e-5 4.011171195280000e-5 4.545319701879999e-5
5.150608587480000e-5 5.836514922050000e-5 6.613779899550001e-5 7.494577501870001e-5
8.492703676000000e-5 9.623794751120002e-5 1.090557505940000e-4 1.235813142650000e-4
1.400423440120000e-4 1.586969429640000e-4 1.798376908000000e-4 2.037962673580000e-4
2.309487104070000e-4 2.617213591910000e-4 2.965976183130000e-4 3.361256584230000e-4
3.809271331260000e-4 4.317071092350000e-4 4.892653569180000e-4 5.545091928010000e-4
6.284680923870001e-4 7.123102399660000e-4 8.073617649740001e-4 9.151279153330000e-4
1.037318170390000e-3 1.175874000840000e-3 1.333001426750000e-3 1.511207452020000e-3
1.713342278060000e-3 1.942647632540000e-3 2.202812113050000e-3 2.498034385700000e-3
2.833096526800000e-3 3.213447665509999e-3 3.645300702780000e-3 4.135743480150000e-3
4.692867075310001e-3 5.325913441280000e-3 6.045445662000000e-3 6.863545192760000e-3
7.794035783269999e-3 8.852743999379999e-3 1.005779457330000e-2 1.142994910530000e-2
1.299298709730000e-2 1.477413460770000e-2 1.680453617100000e-2 1.911977191640000e-2
2.176040351230000e-2 2.477252908580000e-2 2.820832298180000e-2 3.212650134770000e-2
3.659263566710000e-2 4.167921605370000e-2 4.746529543479999e-2 5.403551560870000e-2
6.147825381440000e-2 6.988252212850000e-2 7.933324224220000e-2 8.990446716950000e-2
1.016500312050000e-1 1.145913598840000e-1 1.287021907190000e-1 1.438905425420000e-1
1.599787581420000e-1 1.766833540030000e-1 1.935976363660000e-1 2.101809129720000e-1
2.257592808700000e-1 2.395429102300000e-1 2.506638396740000e-1 2.582356011910000e-1
2.614320616490000e-1 2.595781700940000e-1 2.522419502230000e-1 2.393155234870000e-1
2.210750669770000e-1 1.982119138620000e-1 1.718273367780000e-1 1.433795879920000e-1
1.145686810530000e-1 8.715056064199999e-2 6.269636897990000e-2 4.234738469580001e-2
2.664092885280000e-2 1.547290873700000e-2 8.215139331099998e-3 3.943311271979999e-3
1.689828369500000e-3 6.372571406410001e-4 2.080229463320000e-4 5.767299482250000e-5
1.328392610830000e-5 2.477353804889999e-6 3.628326749190000e-7 4.021587754670001e-8
3.218336200350000e-9 1.741719740860001e-10 5.703618754070002e-12 8.273300288410001e-14
-6.948149056110000e-16 -3.531655190510000e-17 0.000000000000000e0 0.000000000000000e0
0.000000000000000e0 0.000000000000000e0 0.000000000000000e0 0.000000000000000e0
0.000000000000000e0 0.000000000000000e0 0.000000000000000e0 0.000000000000000e0
0.000000000000000e0 0.000000000000000e0 0.000000000000000e0 0.000000000000000e0
0.000000000000000e0 0.000000000000000e0 0.000000000000000e0 0.000000000000000e0
0.000000000000000e0 0.000000000000000e0 0.000000000000000e0 0.000000000000000e0
0.000000000000000e0 0.000000000000000e0 0.000000000000000e0 0.000000000000000e0
0.000000000000000e0 0.000000000000000e0 0.000000000000000e0 0.000000000000000e0
0.000000000000000e0 0.000000000000000e0 0.000000000000000e0 0.000000000000000e0
0.000000000000000e0 0.000000000000000e0 0.000000000000000e0
</PP_BETA.2>
<PP_DIJ>
6.436244608170000e0 0.000000000000000e0 0.000000000000000e0 2.411503108490000e1
</PP_DIJ>
</PP_NONLOCAL>
<PP_PSWFC>
<PP_CHI.1 index="1" label="3S" l="0" occupation="2.000000000000e0" n="0" pseudo_energy="0.000000000000e0" cutoff_radius="0.000000000000e0" ultrasoft_cutoff_radius="0.000000000000e0">
9.660019000000000e-5 1.028304400000000e-4 1.094625100000000e-4 1.165223400000000e-4
1.240375100000000e-4 1.320373900000000e-4 1.405532500000000e-4 1.496183700000000e-4
1.592681800000000e-4 1.695404100000000e-4 1.804752000000000e-4 1.921153100000000e-4
2.045062300000000e-4 2.176964100000000e-4 2.317374100000000e-4 2.466841500000000e-4
2.625950800000000e-4 2.795324000000000e-4 2.975623800000000e-4 3.167555400000000e-4
3.371869700000000e-4 3.589366200000000e-4 3.820896200000001e-4 4.067365900000000e-4
4.329740399999999e-4 4.609047400000000e-4 4.906381000000000e-4 5.222906600000000e-4
5.559865200000001e-4 5.918578399999999e-4 6.300454000000000e-4 6.706991400000000e-4
7.139788100000000e-4 7.600545800000001e-4 8.091077800000001e-4 8.613316300000001e-4
9.169320500000000e-4 9.761285700000000e-4 1.039155200000000e-3 1.106261500000000e-3
1.177713600000000e-3 1.253795500000000e-3 1.334810300000000e-3 1.421081400000000e-3
1.512954300000000e-3 1.610798000000000e-3 1.715007200000000e-3 1.826003500000000e-3
1.944238600000000e-3 2.070195600000000e-3 2.204392600000000e-3 2.347385100000000e-3
2.499769200000000e-3 2.662185600000000e-3 2.835323600000000e-3 3.019925400000000e-3
3.216791900000000e-3 3.426788100000000e-3 3.650850200000000e-3 3.889993200000000e-3
4.145319900000000e-3 4.418030900000000e-3 4.709437000000000e-3 5.020972499999999e-3
5.354211700000000e-3 5.710887300000000e-3 6.092912800000000e-3 6.502408599999999e-3
6.941732200000001e-3 7.413514599999999e-3 7.920703300000000e-3 8.466613300000001e-3
9.054987800000001e-3 9.690070199999999e-3 1.037669100000000e-2 1.112037000000000e-2
1.192744300000000e-2 1.280520500000000e-2 1.376209300000000e-2 1.480789900000000e-2
1.595402400000000e-2 1.721379000000000e-2 1.860280900000000e-2 2.013942900000000e-2
2.184527000000000e-2 2.374586100000000e-2 2.587140400000000e-2 2.825768100000000e-2
3.094713000000000e-2 3.399009700000000e-2 3.744630400000000e-2 4.138651900000000e-2
4.589443200000000e-2 5.106870900000001e-2 5.702513800000000e-2 6.389874200000000e-2
7.184561499999999e-2 8.104415299999999e-2 9.169513400000000e-2 1.040199700000000e-1
1.182561600000000e-1 1.346489500000000e-1 1.534378600000000e-1 1.748371000000000e-1
1.990093500000000e-1 2.260331600000000e-1 2.558659400000000e-1 2.883064800000000e-1
3.229631200000000e-1 3.592350100000000e-1 3.963142500000000e-1 4.332141600000000e-1
4.688240100000000e-1 5.019845600000000e-1 5.315721700000000e-1 5.565770400000000e-1
5.761624200000000e-1 5.896984600000001e-1 5.967719900000001e-1 5.971799000000000e-1
5.909157499999999e-1 5.781563800000001e-1 5.592506800000000e-1 5.347089400000000e-1
5.051894500000000e-1 4.714796600000001e-1 4.344711700000000e-1 3.951286000000000e-1
3.544538500000000e-1 3.134472000000000e-1 2.730671800000000e-1 2.341916000000000e-1
1.975820600000000e-1 1.638548600000000e-1 1.334606300000000e-1 1.066747800000000e-1
8.359965499999999e-2 6.417809300000000e-2 4.821682100000000e-2 3.541696100000000e-2
2.540823000000000e-2 1.778322800000000e-2 1.212859200000000e-2 8.050559500000000e-3
5.193561700000000e-3 3.251501700000000e-3 1.972320300000000e-3 1.157084400000000e-3
6.551632099999999e-4 3.571389400000000e-4 1.871674100000000e-4 9.408347299999997e-5
4.523897300000000e-5 2.074801000000000e-5 9.048325499999999e-6 3.739905600000000e-6
1.459914100000000e-6 5.362084299999999e-7 1.845551200000001e-7 5.926784899999999e-8
1.767583000000000e-8 4.870931099999998e-9 1.233682800000000e-9 2.865010500000000e-10
6.580980000000000e-11 1.372132100000000e-11 2.580647100000000e-12 4.349106899999999e-13
6.521319600000000e-14 8.634987900000000e-15 1.001600900000000e-15
</PP_CHI.1>
<PP_CHI.2 index="2" label="3P" l="1" occupation="0.000000000000e0" n="0" pseudo_energy="0.000000000000e0" cutoff_radius="0.000000000000e0" ultrasoft_cutoff_radius="0.000000000000e0">
1.956365300000000e-7 2.216852500000000e-7 2.512023300000000e-7 2.846495700000000e-7
3.225502600000000e-7 3.654973900000000e-7 4.141628800000001e-7 4.693081300000000e-7
5.317959100000000e-7 6.026038800000001e-7 6.828398700000000e-7 7.737592099999999e-7
8.767844000000000e-7 9.935273299999999e-7 1.125814500000000e-6 1.275715700000000e-6
1.445576200000000e-6 1.638053700000000e-6 1.856159500000000e-6 2.103306200000000e-6
2.383360700000000e-6 2.700704800000000e-6 3.060303600000000e-6 3.467783600000001e-6
3.929520400000000e-6 4.452738700000000e-6 5.045625200000002e-6 5.717456700000001e-6
6.478745699999999e-6 7.341404400000000e-6 8.318931400000000e-6 9.426623200000000e-6
1.068181400000000e-5 1.210414500000000e-5 1.371587500000000e-5 1.554222900000000e-5
1.761178900000000e-5 1.995694500000000e-5 2.261440600000000e-5 2.562576600000001e-5
2.903816600000000e-5 3.290502700000000e-5 3.728688900000000e-5 4.225236100000000e-5
4.787920000000001e-5 5.425552900000000e-5 6.148122100000000e-5 6.966947200000001e-5
7.894857800000000e-5 8.946395499999998e-5 1.013804300000000e-4 1.148848400000000e-4
1.301889800000000e-4 1.475329300000000e-4 1.671889100000000e-4 1.894655000000000e-4
2.147126300000000e-4 2.433270600000000e-4 2.757587800000000e-4 3.125181200000000e-4
3.541839400000000e-4 4.014129400000000e-4 4.549502400000000e-4 5.156413600000000e-4
5.844460200000000e-4 6.624537300000000e-4 7.509016700000000e-4 8.511950600000000e-4
9.649304800000001e-4 1.093922500000000e-3 1.240234200000000e-3 1.406212400000000e-3
1.594527500000000e-3 1.808220000000000e-3 2.050753500000000e-3 2.326076300000000e-3
2.638692100000000e-3 2.993742100000000e-3 3.397099600000000e-3 3.855480600000000e-3
4.376571800000001e-3 4.969179000000000e-3 5.643401200000000e-3 6.410833000000000e-3
7.284799899999999e-3 8.280634500000000e-3 9.415996900000000e-3 1.071124800000000e-2
1.218988500000000e-2 1.387904100000000e-2 1.581006100000000e-2 1.801916400000000e-2
2.054818000000000e-2 2.344537900000000e-2 2.676636200000000e-2 3.057500900000000e-2
3.494443100000000e-2 3.995785000000001e-2 4.570932400000000e-2 5.230412900000000e-2
5.985861099999999e-2 6.849920300000000e-2 7.836026400000000e-2 8.958031300000000e-2
1.022962300000000e-1 1.166350000000000e-1 1.327028300000000e-1 1.505716200000000e-1
1.702634300000000e-1 1.917341500000000e-1 2.148584200000000e-1 2.394182600000000e-1
2.650983700000000e-1 2.914902600000000e-1 3.181063400000000e-1 3.444026400000000e-1
3.698069300000000e-1 3.937474300000000e-1 4.156773200000000e-1 4.350921700000000e-1
4.515400000000000e-1 4.646263800000000e-1 4.740178200000000e-1 4.794461200000000e-1